<?xml version="1.0"?>
<VTKFile type="UnstructuredGrid"  version="0.1"  >
<UnstructuredGrid>
<Piece  NumberOfPoints="1331" NumberOfCells="6000">
<Points>
<DataArray  type="Float64"  NumberOfComponents="3"  format="ascii">0 0 0  1 0 0  2 0 0  3 0 0  4 0 0  5 0 0  6 0 0  7 0 0  8 0 0  9 0 0  10 0 0  0 1 0  1 1 0  2 1 0  3 1 0  4 1 0  5 1 0  6 1 0  7 1 0  8 1 0  9 1 0  10 1 0  0 2 0  1 2 0  2 2 0  3 2 0  4 2 0  5 2 0  6 2 0  7 2 0  8 2 0  9 2 0  10 2 0  0 3 0  1 3 0  2 3 0  3 3 0  4 3 0  5 3 0  6 3 0  7 3 0  8 3 0  9 3 0  10 3 0  0 4 0  1 4 0  2 4 0  3 4 0  4 4 0  5 4 0  6 4 0  7 4 0  8 4 0  9 4 0  10 4 0  0 5 0  1 5 0  2 5 0  3 5 0  4 5 0  5 5 0  6 5 0  7 5 0  8 5 0  9 5 0  10 5 0  0 6 0  1 6 0  2 6 0  3 6 0  4 6 0  5 6 0  6 6 0  7 6 0  8 6 0  9 6 0  10 6 0  0 7 0  1 7 0  2 7 0  3 7 0  4 7 0  5 7 0  6 7 0  7 7 0  8 7 0  9 7 0  10 7 0  0 8 0  1 8 0  2 8 0  3 8 0  4 8 0  5 8 0  6 8 0  7 8 0  8 8 0  9 8 0  10 8 0  0 9 0  1 9 0  2 9 0  3 9 0  4 9 0  5 9 0  6 9 0  7 9 0  8 9 0  9 9 0  10 9 0  0 10 0  1 10 0  2 10 0  3 10 0  4 10 0  5 10 0  6 10 0  7 10 0  8 10 0  9 10 0  10 10 0  0 0 1  1 0 1  2 0 1  3 0 1  4 0 1  5 0 1  6 0 1  7 0 1  8 0 1  9 0 1  10 0 1  0 1 1  1 1 1  2 1 1  3 1 1  4 1 1  5 1 1  6 1 1  7 1 1  8 1 1  9 1 1  10 1 1  0 2 1  1 2 1  2 2 1  3 2 1  4 2 1  5 2 1  6 2 1  7 2 1  8 2 1  9 2 1  10 2 1  0 3 1  1 3 1  2 3 1  3 3 1  4 3 1  5 3 1  6 3 1  7 3 1  8 3 1  9 3 1  10 3 1  0 4 1  1 4 1  2 4 1  3 4 1  4 4 1  5 4 1  6 4 1  7 4 1  8 4 1  9 4 1  10 4 1  0 5 1  1 5 1  2 5 1  3 5 1  4 5 1  5 5 1  6 5 1  7 5 1  8 5 1  9 5 1  10 5 1  0 6 1  1 6 1  2 6 1  3 6 1  4 6 1  5 6 1  6 6 1  7 6 1  8 6 1  9 6 1  10 6 1  0 7 1  1 7 1  2 7 1  3 7 1  4 7 1  5 7 1  6 7 1  7 7 1  8 7 1  9 7 1  10 7 1  0 8 1  1 8 1  2 8 1  3 8 1  4 8 1  5 8 1  6 8 1  7 8 1  8 8 1  9 8 1  10 8 1  0 9 1  1 9 1  2 9 1  3 9 1  4 9 1  5 9 1  6 9 1  7 9 1  8 9 1  9 9 1  10 9 1  0 10 1  1 10 1  2 10 1  3 10 1  4 10 1  5 10 1  6 10 1  7 10 1  8 10 1  9 10 1  10 10 1  0 0 2  1 0 2  2 0 2  3 0 2  4 0 2  5 0 2  6 0 2  7 0 2  8 0 2  9 0 2  10 0 2  0 1 2  1 1 2  2 1 2  3 1 2  4 1 2  5 1 2  6 1 2  7 1 2  8 1 2  9 1 2  10 1 2  0 2 2  1 2 2  2 2 2  3 2 2  4 2 2  5 2 2  6 2 2  7 2 2  8 2 2  9 2 2  10 2 2  0 3 2  1 3 2  2 3 2  3 3 2  4 3 2  5 3 2  6 3 2  7 3 2  8 3 2  9 3 2  10 3 2  0 4 2  1 4 2  2 4 2  3 4 2  4 4 2  5 4 2  6 4 2  7 4 2  8 4 2  9 4 2  10 4 2  0 5 2  1 5 2  2 5 2  3 5 2  4 5 2  5 5 2  6 5 2  7 5 2  8 5 2  9 5 2  10 5 2  0 6 2  1 6 2  2 6 2  3 6 2  4 6 2  5 6 2  6 6 2  7 6 2  8 6 2  9 6 2  10 6 2  0 7 2  1 7 2  2 7 2  3 7 2  4 7 2  5 7 2  6 7 2  7 7 2  8 7 2  9 7 2  10 7 2  0 8 2  1 8 2  2 8 2  3 8 2  4 8 2  5 8 2  6 8 2  7 8 2  8 8 2  9 8 2  10 8 2  0 9 2  1 9 2  2 9 2  3 9 2  4 9 2  5 9 2  6 9 2  7 9 2  8 9 2  9 9 2  10 9 2  0 10 2  1 10 2  2 10 2  3 10 2  4 10 2  5 10 2  6 10 2  7 10 2  8 10 2  9 10 2  10 10 2  0 0 3  1 0 3  2 0 3  3 0 3  4 0 3  5 0 3  6 0 3  7 0 3  8 0 3  9 0 3  10 0 3  0 1 3  1 1 3  2 1 3  3 1 3  4 1 3  5 1 3  6 1 3  7 1 3  8 1 3  9 1 3  10 1 3  0 2 3  1 2 3  2 2 3  3 2 3  4 2 3  5 2 3  6 2 3  7 2 3  8 2 3  9 2 3  10 2 3  0 3 3  1 3 3  2 3 3  3 3 3  4 3 3  5 3 3  6 3 3  7 3 3  8 3 3  9 3 3  10 3 3  0 4 3  1 4 3  2 4 3  3 4 3  4 4 3  5 4 3  6 4 3  7 4 3  8 4 3  9 4 3  10 4 3  0 5 3  1 5 3  2 5 3  3 5 3  4 5 3  5 5 3  6 5 3  7 5 3  8 5 3  9 5 3  10 5 3  0 6 3  1 6 3  2 6 3  3 6 3  4 6 3  5 6 3  6 6 3  7 6 3  8 6 3  9 6 3  10 6 3  0 7 3  1 7 3  2 7 3  3 7 3  4 7 3  5 7 3  6 7 3  7 7 3  8 7 3  9 7 3  10 7 3  0 8 3  1 8 3  2 8 3  3 8 3  4 8 3  5 8 3  6 8 3  7 8 3  8 8 3  9 8 3  10 8 3  0 9 3  1 9 3  2 9 3  3 9 3  4 9 3  5 9 3  6 9 3  7 9 3  8 9 3  9 9 3  10 9 3  0 10 3  1 10 3  2 10 3  3 10 3  4 10 3  5 10 3  6 10 3  7 10 3  8 10 3  9 10 3  10 10 3  0 0 4  1 0 4  2 0 4  3 0 4  4 0 4  5 0 4  6 0 4  7 0 4  8 0 4  9 0 4  10 0 4  0 1 4  1 1 4  2 1 4  3 1 4  4 1 4  5 1 4  6 1 4  7 1 4  8 1 4  9 1 4  10 1 4  0 2 4  1 2 4  2 2 4  3 2 4  4 2 4  5 2 4  6 2 4  7 2 4  8 2 4  9 2 4  10 2 4  0 3 4  1 3 4  2 3 4  3 3 4  4 3 4  5 3 4  6 3 4  7 3 4  8 3 4  9 3 4  10 3 4  0 4 4  1 4 4  2 4 4  3 4 4  4 4 4  5 4 4  6 4 4  7 4 4  8 4 4  9 4 4  10 4 4  0 5 4  1 5 4  2 5 4  3 5 4  4 5 4  5 5 4  6 5 4  7 5 4  8 5 4  9 5 4  10 5 4  0 6 4  1 6 4  2 6 4  3 6 4  4 6 4  5 6 4  6 6 4  7 6 4  8 6 4  9 6 4  10 6 4  0 7 4  1 7 4  2 7 4  3 7 4  4 7 4  5 7 4  6 7 4  7 7 4  8 7 4  9 7 4  10 7 4  0 8 4  1 8 4  2 8 4  3 8 4  4 8 4  5 8 4  6 8 4  7 8 4  8 8 4  9 8 4  10 8 4  0 9 4  1 9 4  2 9 4  3 9 4  4 9 4  5 9 4  6 9 4  7 9 4  8 9 4  9 9 4  10 9 4  0 10 4  1 10 4  2 10 4  3 10 4  4 10 4  5 10 4  6 10 4  7 10 4  8 10 4  9 10 4  10 10 4  0 0 5  1 0 5  2 0 5  3 0 5  4 0 5  5 0 5  6 0 5  7 0 5  8 0 5  9 0 5  10 0 5  0 1 5  1 1 5  2 1 5  3 1 5  4 1 5  5 1 5  6 1 5  7 1 5  8 1 5  9 1 5  10 1 5  0 2 5  1 2 5  2 2 5  3 2 5  4 2 5  5 2 5  6 2 5  7 2 5  8 2 5  9 2 5  10 2 5  0 3 5  1 3 5  2 3 5  3 3 5  4 3 5  5 3 5  6 3 5  7 3 5  8 3 5  9 3 5  10 3 5  0 4 5  1 4 5  2 4 5  3 4 5  4 4 5  5 4 5  6 4 5  7 4 5  8 4 5  9 4 5  10 4 5  0 5 5  1 5 5  2 5 5  3 5 5  4 5 5  5 5 5  6 5 5  7 5 5  8 5 5  9 5 5  10 5 5  0 6 5  1 6 5  2 6 5  3 6 5  4 6 5  5 6 5  6 6 5  7 6 5  8 6 5  9 6 5  10 6 5  0 7 5  1 7 5  2 7 5  3 7 5  4 7 5  5 7 5  6 7 5  7 7 5  8 7 5  9 7 5  10 7 5  0 8 5  1 8 5  2 8 5  3 8 5  4 8 5  5 8 5  6 8 5  7 8 5  8 8 5  9 8 5  10 8 5  0 9 5  1 9 5  2 9 5  3 9 5  4 9 5  5 9 5  6 9 5  7 9 5  8 9 5  9 9 5  10 9 5  0 10 5  1 10 5  2 10 5  3 10 5  4 10 5  5 10 5  6 10 5  7 10 5  8 10 5  9 10 5  10 10 5  0 0 6  1 0 6  2 0 6  3 0 6  4 0 6  5 0 6  6 0 6  7 0 6  8 0 6  9 0 6  10 0 6  0 1 6  1 1 6  2 1 6  3 1 6  4 1 6  5 1 6  6 1 6  7 1 6  8 1 6  9 1 6  10 1 6  0 2 6  1 2 6  2 2 6  3 2 6  4 2 6  5 2 6  6 2 6  7 2 6  8 2 6  9 2 6  10 2 6  0 3 6  1 3 6  2 3 6  3 3 6  4 3 6  5 3 6  6 3 6  7 3 6  8 3 6  9 3 6  10 3 6  0 4 6  1 4 6  2 4 6  3 4 6  4 4 6  5 4 6  6 4 6  7 4 6  8 4 6  9 4 6  10 4 6  0 5 6  1 5 6  2 5 6  3 5 6  4 5 6  5 5 6  6 5 6  7 5 6  8 5 6  9 5 6  10 5 6  0 6 6  1 6 6  2 6 6  3 6 6  4 6 6  5 6 6  6 6 6  7 6 6  8 6 6  9 6 6  10 6 6  0 7 6  1 7 6  2 7 6  3 7 6  4 7 6  5 7 6  6 7 6  7 7 6  8 7 6  9 7 6  10 7 6  0 8 6  1 8 6  2 8 6  3 8 6  4 8 6  5 8 6  6 8 6  7 8 6  8 8 6  9 8 6  10 8 6  0 9 6  1 9 6  2 9 6  3 9 6  4 9 6  5 9 6  6 9 6  7 9 6  8 9 6  9 9 6  10 9 6  0 10 6  1 10 6  2 10 6  3 10 6  4 10 6  5 10 6  6 10 6  7 10 6  8 10 6  9 10 6  10 10 6  0 0 7  1 0 7  2 0 7  3 0 7  4 0 7  5 0 7  6 0 7  7 0 7  8 0 7  9 0 7  10 0 7  0 1 7  1 1 7  2 1 7  3 1 7  4 1 7  5 1 7  6 1 7  7 1 7  8 1 7  9 1 7  10 1 7  0 2 7  1 2 7  2 2 7  3 2 7  4 2 7  5 2 7  6 2 7  7 2 7  8 2 7  9 2 7  10 2 7  0 3 7  1 3 7  2 3 7  3 3 7  4 3 7  5 3 7  6 3 7  7 3 7  8 3 7  9 3 7  10 3 7  0 4 7  1 4 7  2 4 7  3 4 7  4 4 7  5 4 7  6 4 7  7 4 7  8 4 7  9 4 7  10 4 7  0 5 7  1 5 7  2 5 7  3 5 7  4 5 7  5 5 7  6 5 7  7 5 7  8 5 7  9 5 7  10 5 7  0 6 7  1 6 7  2 6 7  3 6 7  4 6 7  5 6 7  6 6 7  7 6 7  8 6 7  9 6 7  10 6 7  0 7 7  1 7 7  2 7 7  3 7 7  4 7 7  5 7 7  6 7 7  7 7 7  8 7 7  9 7 7  10 7 7  0 8 7  1 8 7  2 8 7  3 8 7  4 8 7  5 8 7  6 8 7  7 8 7  8 8 7  9 8 7  10 8 7  0 9 7  1 9 7  2 9 7  3 9 7  4 9 7  5 9 7  6 9 7  7 9 7  8 9 7  9 9 7  10 9 7  0 10 7  1 10 7  2 10 7  3 10 7  4 10 7  5 10 7  6 10 7  7 10 7  8 10 7  9 10 7  10 10 7  0 0 8  1 0 8  2 0 8  3 0 8  4 0 8  5 0 8  6 0 8  7 0 8  8 0 8  9 0 8  10 0 8  0 1 8  1 1 8  2 1 8  3 1 8  4 1 8  5 1 8  6 1 8  7 1 8  8 1 8  9 1 8  10 1 8  0 2 8  1 2 8  2 2 8  3 2 8  4 2 8  5 2 8  6 2 8  7 2 8  8 2 8  9 2 8  10 2 8  0 3 8  1 3 8  2 3 8  3 3 8  4 3 8  5 3 8  6 3 8  7 3 8  8 3 8  9 3 8  10 3 8  0 4 8  1 4 8  2 4 8  3 4 8  4 4 8  5 4 8  6 4 8  7 4 8  8 4 8  9 4 8  10 4 8  0 5 8  1 5 8  2 5 8  3 5 8  4 5 8  5 5 8  6 5 8  7 5 8  8 5 8  9 5 8  10 5 8  0 6 8  1 6 8  2 6 8  3 6 8  4 6 8  5 6 8  6 6 8  7 6 8  8 6 8  9 6 8  10 6 8  0 7 8  1 7 8  2 7 8  3 7 8  4 7 8  5 7 8  6 7 8  7 7 8  8 7 8  9 7 8  10 7 8  0 8 8  1 8 8  2 8 8  3 8 8  4 8 8  5 8 8  6 8 8  7 8 8  8 8 8  9 8 8  10 8 8  0 9 8  1 9 8  2 9 8  3 9 8  4 9 8  5 9 8  6 9 8  7 9 8  8 9 8  9 9 8  10 9 8  0 10 8  1 10 8  2 10 8  3 10 8  4 10 8  5 10 8  6 10 8  7 10 8  8 10 8  9 10 8  10 10 8  0 0 9  1 0 9  2 0 9  3 0 9  4 0 9  5 0 9  6 0 9  7 0 9  8 0 9  9 0 9  10 0 9  0 1 9  1 1 9  2 1 9  3 1 9  4 1 9  5 1 9  6 1 9  7 1 9  8 1 9  9 1 9  10 1 9  0 2 9  1 2 9  2 2 9  3 2 9  4 2 9  5 2 9  6 2 9  7 2 9  8 2 9  9 2 9  10 2 9  0 3 9  1 3 9  2 3 9  3 3 9  4 3 9  5 3 9  6 3 9  7 3 9  8 3 9  9 3 9  10 3 9  0 4 9  1 4 9  2 4 9  3 4 9  4 4 9  5 4 9  6 4 9  7 4 9  8 4 9  9 4 9  10 4 9  0 5 9  1 5 9  2 5 9  3 5 9  4 5 9  5 5 9  6 5 9  7 5 9  8 5 9  9 5 9  10 5 9  0 6 9  1 6 9  2 6 9  3 6 9  4 6 9  5 6 9  6 6 9  7 6 9  8 6 9  9 6 9  10 6 9  0 7 9  1 7 9  2 7 9  3 7 9  4 7 9  5 7 9  6 7 9  7 7 9  8 7 9  9 7 9  10 7 9  0 8 9  1 8 9  2 8 9  3 8 9  4 8 9  5 8 9  6 8 9  7 8 9  8 8 9  9 8 9  10 8 9  0 9 9  1 9 9  2 9 9  3 9 9  4 9 9  5 9 9  6 9 9  7 9 9  8 9 9  9 9 9  10 9 9  0 10 9  1 10 9  2 10 9  3 10 9  4 10 9  5 10 9  6 10 9  7 10 9  8 10 9  9 10 9  10 10 9  0 0 10  1 0 10  2 0 10  3 0 10  4 0 10  5 0 10  6 0 10  7 0 10  8 0 10  9 0 10  10 0 10  0 1 10  1 1 10  2 1 10  3 1 10  4 1 10  5 1 10  6 1 10  7 1 10  8 1 10  9 1 10  10 1 10  0 2 10  1 2 10  2 2 10  3 2 10  4 2 10  5 2 10  6 2 10  7 2 10  8 2 10  9 2 10  10 2 10  0 3 10  1 3 10  2 3 10  3 3 10  4 3 10  5 3 10  6 3 10  7 3 10  8 3 10  9 3 10  10 3 10  0 4 10  1 4 10  2 4 10  3 4 10  4 4 10  5 4 10  6 4 10  7 4 10  8 4 10  9 4 10  10 4 10  0 5 10  1 5 10  2 5 10  3 5 10  4 5 10  5 5 10  6 5 10  7 5 10  8 5 10  9 5 10  10 5 10  0 6 10  1 6 10  2 6 10  3 6 10  4 6 10  5 6 10  6 6 10  7 6 10  8 6 10  9 6 10  10 6 10  0 7 10  1 7 10  2 7 10  3 7 10  4 7 10  5 7 10  6 7 10  7 7 10  8 7 10  9 7 10  10 7 10  0 8 10  1 8 10  2 8 10  3 8 10  4 8 10  5 8 10  6 8 10  7 8 10  8 8 10  9 8 10  10 8 10  0 9 10  1 9 10  2 9 10  3 9 10  4 9 10  5 9 10  6 9 10  7 9 10  8 9 10  9 9 10  10 9 10  0 10 10  1 10 10  2 10 10  3 10 10  4 10 10  5 10 10  6 10 10  7 10 10  8 10 10  9 10 10  10 10 10  </DataArray>
</Points>
<Cells>
[...]
<PointData  Scalars="f_177"> 
<DataArray  type="Float64"  Name="f_177"  format="ascii">0.0000000000000000e+00  0.0000000000000000e+00  0.0000000000000000e+00  0.0000000000000000e+00  0.0000000000000000e+00  0.0000000000000000e+00  0.0000000000000000e+00  0.0000000000000000e+00  0.0000000000000000e+00  0.0000000000000000e+00  0.0000000000000000e+00  0.0000000000000000e+00  0.0000000000000000e+00  0.0000000000000000e+00  0.0000000000000000e+00  0.0000000000000000e+00  0.0000000000000000e+00  0.0000000000000000e+00  0.0000000000000000e+00  0.0000000000000000e+00  0.0000000000000000e+00  0.0000000000000000e+00  0.0000000000000000e+00  0.0000000000000000e+00  0.0000000000000000e+00  0.0000000000000000e+00  0.0000000000000000e+00  0.0000000000000000e+00  0.0000000000000000e+00  0.0000000000000000e+00  0.0000000000000000e+00  0.0000000000000000e+00  0.0000000000000000e+00  0.0000000000000000e+00  0.0000000000000000e+00  0.0000000000000000e+00  0.0000000000000000e+00  0.0000000000000000e+00  0.0000000000000000e+00  0.0000000000000000e+00  0.0000000000000000e+00  0.0000000000000000e+00  0.0000000000000000e+00  0.0000000000000000e+00  0.0000000000000000e+00  0.0000000000000000e+00  0.0000000000000000e+00  0.0000000000000000e+00  0.0000000000000000e+00  0.0000000000000000e+00  0.0000000000000000e+00  0.0000000000000000e+00  0.0000000000000000e+00  0.0000000000000000e+00  0.0000000000000000e+00  0.0000000000000000e+00  0.0000000000000000e+00  0.0000000000000000e+00  0.0000000000000000e+00  0.0000000000000000e+00  0.0000000000000000e+00  0.0000000000000000e+00  0.0000000000000000e+00  0.0000000000000000e+00  0.0000000000000000e+00  0.0000000000000000e+00  0.0000000000000000e+00  0.0000000000000000e+00  0.0000000000000000e+00  0.0000000000000000e+00  0.0000000000000000e+00  0.0000000000000000e+00  0.0000000000000000e+00  0.0000000000000000e+00  0.0000000000000000e+00  0.0000000000000000e+00  0.0000000000000000e+00  0.0000000000000000e+00  0.0000000000000000e+00  0.0000000000000000e+00  0.0000000000000000e+00  0.0000000000000000e+00  0.0000000000000000e+00  0.0000000000000000e+00  0.0000000000000000e+00  0.0000000000000000e+00  0.0000000000000000e+00  0.0000000000000000e+00  0.0000000000000000e+00  0.0000000000000000e+00  0.0000000000000000e+00  0.0000000000000000e+00  0.0000000000000000e+00  0.0000000000000000e+00  0.0000000000000000e+00  0.0000000000000000e+00  0.0000000000000000e+00  0.0000000000000000e+00  0.0000000000000000e+00  0.0000000000000000e+00  0.0000000000000000e+00  0.0000000000000000e+00  0.0000000000000000e+00  0.0000000000000000e+00  0.0000000000000000e+00  0.0000000000000000e+00  0.0000000000000000e+00  0.0000000000000000e+00  0.0000000000000000e+00  0.0000000000000000e+00  0.0000000000000000e+00  0.0000000000000000e+00  0.0000000000000000e+00  0.0000000000000000e+00  0.0000000000000000e+00  0.0000000000000000e+00  0.0000000000000000e+00  0.0000000000000000e+00  0.0000000000000000e+00  0.0000000000000000e+00  0.0000000000000000e+00  3.0357589803563342e-02  2.9302618866670124e-02  2.6294129244786794e-02  2.2324070709273485e-02  1.8250925999084476e-02  1.4605886278776993e-02  1.1630458511912046e-02  9.3847450399382002e-03  7.8435924176565135e-03  6.9615172249176006e-03  6.7175075383384313e-03  3.2349663290965072e-02  3.1001654263359189e-02  2.7550707966622567e-02  2.3153010644860392e-02  1.8754979200239476e-02  1.4895558553362040e-02  1.1790625427713036e-02  9.4709319378447707e-03  7.8881801478150240e-03  6.9781706142277231e-03  6.6900590295903154e-03  3.7845934509517155e-02  3.5825891259185817e-02  3.1080268324907925e-02  2.5442407308943215e-02  2.0126222357151093e-02  1.5674398052029598e-02  1.2217753662572630e-02  9.7002828576839301e-03  8.0106231414696326e-03  7.0451602800037537e-03  6.7332687854904909e-03  4.6083259476054912e-02  4.2871919812791350e-02  3.6039304544648605e-02  2.8546931119441801e-02  2.1934160368812058e-02  1.6680138519248454e-02  1.2761328585870880e-02  9.9896898258544781e-03  8.1658583674081107e-03  7.1350854447226001e-03  6.8024011351089366e-03  5.4491179570760745e-02  4.9752016083070748e-02  4.0636840886280452e-02  3.1305471806500368e-02  2.3490953772521677e-02  1.7527198627823759e-02  1.3212194217640022e-02  1.0227261746917017e-02  8.2926558909798449e-03  7.2091400611152077e-03  6.8606501225539143e-03  5.7791858543737230e-02  5.2420097870088764e-02  4.2395565116391830e-02  3.2349993073118512e-02  2.4076670441355724e-02  1.7844670195301653e-02  1.3380531196491397e-02  1.0315190095150329e-02  8.3385426400091282e-03  7.2348300128454680e-03  6.8802826172097422e-03  5.3392068809201498e-02  4.8961571667570813e-02  4.0199671164167505e-02  3.1092329054821864e-02  2.3393467123021681e-02  1.7483481514803154e-02  1.3191525210707716e-02  1.0215281689752252e-02  8.2829050734032107e-03  7.1991034190936566e-03  6.8501310573278835e-03  4.4990730498094211e-02  4.2011815206267129e-02  3.5513821043103716e-02  2.8267924317106154e-02  2.1797251409978000e-02  1.6614779668123747e-02  1.2728113131563818e-02  9.9683377959006361e-03  8.1463678822328855e-03  7.1132737592807084e-03  6.7785974323735605e-03  3.7142375176989047e-02  3.5229144167494855e-02  3.0677685114982579e-02  2.5207496179104824e-02  2.0000701454032151e-02  1.5609202654151277e-02  1.2180810800441486e-02  9.6725155188207030e-03  7.9808277581315083e-03  7.0073626815406959e-03  6.6884542433546497e-03  3.2034561923096422e-02  3.0681775316173627e-02  2.7298108280176866e-02  2.2986215154299491e-02  1.8656299802350205e-02  1.4839026107979587e-02  1.1754332921974503e-02  9.4387399613244209e-03  7.8474268502158797e-03  6.9174263874371058e-03  6.6039963062920464e-03  3.0386487171334506e-02  2.9132498771161034e-02  2.6111597494179538e-02  2.2188611129234839e-02  1.8165097676768407e-02  1.4553896762828675e-02  1.1594836905727128e-02  9.3503559398811706e-03  7.7951677289921839e-03  6.8747127052680001e-03  6.5292853640569314e-03  5.9309525781363927e-02  5.7160685624952232e-02  5.1036669959532002e-02  4.3093347722048779e-02  3.5065640605977291e-02  2.7962816054941348e-02  2.2210868897331020e-02  1.7892555434371099e-02  1.4938931945453255e-02  1.3251662165055210e-02  1.2785331543183703e-02  6.3891146905991555e-02  6.0981044196711534e-02  5.3775185321821128e-02  4.4845898684083521e-02  3.6104157646978816e-02  2.8547462361413124e-02  2.2529049900586687e-02  1.8061758153918424e-02  1.5025762775691490e-02  1.3284107003039641e-02  1.2733236625257516e-02  7.6990901771711306e-02  7.2155570644539285e-02  6.1623298870047381e-02  4.9748011407298044e-02  3.8951389212882055e-02  3.0126715219843371e-02  2.3379887052138327e-02  1.8512698578362047e-02  1.5264257195906983e-02  1.3413813694112058e-02  1.2816831988236186e-02  9.8418603150468742e-02  8.9531047513787945e-02  7.3099867124469989e-02  5.6560242687746579e-02  4.2760716444509295e-02  3.2183745480954422e-02  2.4468195289909674e-02  1.9083407397246926e-02  1.5567095901422105e-02  1.3587952824699575e-02  1.2950317013163990e-02  1.2356792723863073e-01  1.0809205835850316e-01  8.4328687767071114e-02  6.2808111987639748e-02  4.6102221390638146e-02  3.3935235062230805e-02  2.5376845148737021e-02  1.9553840451877431e-02  1.5815132530429609e-02  1.3731618895589413e-02  1.3062936860774392e-02  1.3402770714228346e-01  1.1561957580976187e-01  8.8766787704695815e-02  6.5229922019641229e-02  4.7380938484170819e-02  3.4600139391335771e-02  2.5719607460148654e-02  1.9729523297732168e-02  1.5905674767675921e-02  1.3781911339645065e-02  1.3101254497685726e-02  1.1964668047823597e-01  1.0574577695570000e-01  8.3234740103116739e-02  6.2342918651517337e-02  4.5911070317171385e-02  3.3856446891664095e-02  2.5341743731635658e-02  1.9533731963351599e-02  1.5798134809331326e-02  1.3713480611704661e-02  1.3043699456196680e-02  9.5386308589840638e-02  8.7375623861339111e-02  7.1925830456098766e-02  5.5996648215628428e-02  4.2506635897584293e-02  3.2070629298246230e-02  2.4413225314209336e-02  1.9047748553034191e-02  1.5532862906681244e-02  1.3548211140443441e-02  1.2906451774997409e-02  7.5370670305754006e-02  7.0861214190556757e-02  6.0817541020015180e-02  4.9312451034208581e-02  3.8733958678608633e-02  3.0019897894330690e-02  2.3320700576138571e-02  1.8466376797126146e-02  1.5211293615978881e-02  1.3344193941040189e-02  1.2733406358380895e-02  6.3314958557907849e-02  6.0396338755112564e-02  5.3331376601425950e-02  4.4566775534930186e-02  3.5946758421021560e-02  2.8460424506572844e-02  2.2472583756374412e-02  1.8007808537054262e-02  1.4952399265410039e-02  1.3171059781306005e-02  1.2571385455466490e-02  5.9590715287903544e-02  5.6933357329104886e-02  5.0752258504327616e-02  4.2882541295862081e-02  3.4935478563846517e-02  2.7885393778517360e-02  2.2156102887703897e-02  1.7834651081918874e-02  1.4851084028372152e-02  1.3088970363684671e-02  1.2428363302944586e-02  8.4612290306840615e-02  8.1353210748724175e-02  7.2121486521762118e-02  6.0441907689343058e-02  4.8878438565831517e-02  3.8799575824736594e-02  3.0721283581588221e-02  2.4697270415667258e-02  2.0594256104253698e-02  1.8255978270697422e-02  1.7610448436193020e-02  9.2734702198485855e-02  8.7902022419605819e-02  7.6613492253929716e-02  6.3201679361493956e-02  5.0459575817277398e-02  3.9666476792766373e-02  3.1183697511006202e-02  2.4939550296654428e-02  2.0717342208015604e-02  1.8301996143893846e-02  1.7538983184455580e-02  1.1747858477521191e-01  1.0798124025579141e-01  8.9880890397247740e-02  7.1064831680085372e-02  5.4842512201511914e-02  4.2023409159642679e-02  3.2424909661555527e-02  2.5586598813277659e-02  2.1055549084384582e-02  1.8484572872786223e-02  1.7656542117281002e-02  1.6480743538883943e-01  1.4254826599195525e-01  1.1051662136351828e-01  8.2397818043120560e-02  6.0832539526022474e-02  4.5131472349984943e-02  3.4023958074510599e-02  2.6408924336055795e-02  2.1485967092841410e-02  1.8729785999187263e-02  1.7843826445465252e-02  2.3828595685126500e-01  1.8575309573869642e-01  1.3256846054083748e-01  9.3322126254241064e-02  6.6237372592756583e-02  4.7821260333895749e-02  3.5371998410615640e-02  2.7090872590201820e-02  2.1839909275032918e-02  1.8932639756872614e-02  1.8002161740063902e-02  2.7192062497357311e-01  2.0466502682729998e-01  1.4179223541219205e-01  9.7730782216705114e-02  6.8365607344882506e-02  4.8863938254498536e-02  3.5888861994959886e-02  2.7349095048189054e-02  2.1970803988908202e-02  1.9004609252369190e-02  1.8056785372643408e-02  2.2358244441669023e-01  1.7963646981417572e-01  1.3042745568652070e-01  9.2592802198724303e-02  6.5986014855070232e-02  4.7731617096792439e-02  3.5335925549732583e-02  2.7069959698623993e-02  2.1820153533171311e-02  1.8909823505517794e-02  1.7977398183759728e-02  1.5755852253428082e-01  1.3832279776957182e-01  1.0861660849338926e-01  8.1624128937255680e-02  6.0530257465872796e-02  4.5012790123565183e-02  3.3970416594637447e-02  2.6371956540936166e-02  2.1445421439066741e-02  1.8679003848956415e-02  1.7786585122146429e-02  1.1465795112867304e-01  1.0597796703362466e-01  8.8796688722818415e-02  7.0552286576964190e-02  5.4617307370474488e-02  4.1924471652266572e-02  3.2371308894349353e-02  2.5538193981730260e-02  2.0991101027484204e-02  1.8393830068591206e-02  1.7545758794386433e-02  9.2101126320467866e-02  8.7255350535506190e-02  7.6157237513993253e-02  6.2941310702763376e-02  5.0327613439820951e-02  3.9598887081213577e-02  3.1136133108802363e-02  2.4882100360171654e-02  2.0625722779533045e-02  1.8151983274797511e-02  1.7320427202569433e-02  8.5594287470855596e-02  8.1331993901012173e-02  7.1923301703967227e-02  6.0285348507903153e-02  4.8786321789888086e-02  3.8746035443579227e-02  3.0676568047311215e-02  2.4634746561447471e-02  2.0482916464817088e-02  1.8037542582911244e-02  1.7121997421939230e-02  1.0262005633202409e-01  9.8420757199578560e-02  8.6670146225114292e-02  7.2154814603427986e-02  5.8044355640377375e-02  4.5901963160525708e-02  3.6252591329782126e-02  2.9096426780481667e-02  2.4238671577673027e-02  2.1475510630894892e-02  2.0713371580901457e-02  1.1462214636365940e-01  1.0774844486399222e-01  9.2799689501647395e-02  7.5784370044244792e-02  6.0064190335081674e-02  4.6985140082522213e-02  3.6820914832885875e-02  2.9390634678041424e-02  2.4386938843215546e-02  2.1530993324368582e-02  2.0629679640214258e-02  1.5437598878065198e-01  1.3792210730618834e-01  1.1148585796011443e-01  8.6318078669839690e-02  6.5723327813161453e-02  4.9948368732193917e-02  3.8351907358757591e-02  3.0177960922653534e-02  2.4794556323479596e-02  2.1749750197858554e-02  2.0770465339956540e-02  2.4956493557218040e-01  1.9670015569109786e-01  1.4260442608347865e-01  1.0209054674710961e-01  7.3625345524251720e-02  5.3903921524883942e-02  4.0338248398941880e-02  3.1182742048256367e-02  2.5314537960965833e-02  2.2043757002458458e-02  2.0994365803908070e-02  4.9791356202915393e-01  2.8835880586231694e-01  1.7969799670930597e-01  1.1819021214438678e-01  8.0980480706859537e-02  5.7387545333287895e-02  4.2030192321388785e-02  3.2021468019440093e-02  2.5744039690943819e-02  2.2287753378993001e-02  2.1184142247755104e-02  6.2629758777660061e-01  3.3326815921540015e-01  1.9659489949709322e-01  1.2508200007054934e-01  8.3994597666093726e-02  5.8776143365124885e-02  4.2692607246574726e-02  3.2344548718708371e-02  2.5905382057010783e-02  2.2375691550628025e-02  2.1250679309612698e-02  4.3309589888570027e-01  2.7507531722927125e-01  1.7669187809752618e-01  1.1744551284527675e-01  8.0784734706977834e-02  5.7334586906223971e-02  4.2012954181746123e-02  3.2008895556363111e-02  2.5726777757579828e-02  2.2264295603145457e-02  2.1157672140536259e-02  2.3507883553133735e-01  1.9077159488062120e-01  1.4060274938807002e-01  1.0145617067295495e-01  7.3434667611286933e-02  5.3849348633575579e-02  4.0317293145031935e-02  3.1159998978524381e-02  2.5277450777171032e-02  2.1990151817972831e-02  2.0931894281822093e-02  1.5096145354428592e-01  1.3597379985462191e-01  1.1065849169892372e-01  8.6021832694264472e-02  6.5635256409313780e-02  4.9926638549666072e-02  3.8337937452520912e-02  3.0146320270314032e-02  2.4732144280005058e-02  2.1650939524882395e-02  2.0646473946039374e-02  1.1452885969435832e-01  1.0756743968882647e-01  9.2695396817478543e-02  7.5758602642968409e-02  6.0075095273564701e-02  4.6998644336239417e-02  3.6815350513393956e-02  2.9349997192462559e-02  2.4293836284517756e-02  2.1363317233874132e-02  2.0379454994029413e-02  1.0486422381450121e-01  9.9030315831132851e-02  8.6855734282573635e-02  7.2237304852174708e-02  5.8095841344357663e-02  4.5930154883331527e-02  3.6250257173532065e-02  2.9050143054294344e-02  2.4122680057105560e-02  2.1227404697431406e-02  2.0144669128530534e-02  1.0892363600842286e-01  1.0438424016362427e-01  9.1724440022622158e-02  7.6203737977243752e-02  6.1202536842315677e-02  4.8344976003213719e-02  3.8154044790325414e-02  3.0608758003684771e-02  2.5491958263976818e-02  2.2583055707360290e-02  2.1780953397691174e-02  1.2250524114280996e-01  1.1482394639327376e-01  9.8495825662489003e-02  8.0167767793978051e-02  6.3388372612906821e-02  4.9508926641679718e-02  3.8761518037205629e-02  3.0922016392357525e-02  2.5649434947715148e-02  2.2642084490134388e-02  2.1693271087234782e-02  1.6874605136048323e-01  1.4924095628548215e-01  1.1938995580228476e-01  9.1759537774322386e-02  6.9541471416089587e-02  5.2702506454195969e-02  4.0401041604314805e-02  3.1761326314108607e-02  2.6082600931799545e-02  2.2874156324101960e-02  2.1842704082618767e-02  2.8689231585224106e-01  2.1920239333046723e-01  1.5513537802972605e-01  1.0940740001758006e-01  7.8221256827473537e-02  5.6992548810643348e-02  4.2536769065853963e-02  3.2835312651481062e-02  2.6636165607815381e-02  2.3186348673837977e-02  2.2080246785354626e-02  6.2994861358357890e-01  3.3681986579024698e-01  1.9987117612772234e-01  1.2796812237825497e-01  8.6447810980380443e-02  6.0813273747574684e-02  4.4369286519472424e-02  3.3736412747141467e-02  2.7095187454220283e-02  2.3446250025299969e-02  2.2282139874959930e-02  8.8831912234037658e-01  4.0861731809981883e-01  2.2303712747758567e-01  1.3653599605374042e-01  8.9978619802168050e-02  6.2383584784070405e-02  4.5102942897520343e-02  3.4089844384672420e-02  2.7270430635296425e-02  2.3541429702637028e-02  2.2354092995485339e-02  6.3013255779769739e-01  3.3698790248220251e-01  2.0000533393892483e-01  1.2806549132492781e-01  8.6513028357915384e-02  6.0852723453126742e-02  4.4388416686550441e-02  3.3739134002995962e-02  2.7084489018617260e-02  2.3425656846638002e-02  2.2257469861732115e-02  2.8731394846251451e-01  2.1957606951085532e-01  1.5542175248500475e-01  1.0960813256157634e-01  7.8352237779026598e-02  5.7070115465679409e-02  4.2573103029187084e-02  3.2838077581329984e-02  2.6610210389877362e-02  2.3137326871859508e-02  2.2020330846264761e-02  1.6955547520210273e-01  1.4990585228144906e-01  1.1986048271628874e-01  9.2070188164461289e-02  6.9735996956625870e-02  5.2814172814080150e-02  4.0450713342370118e-02  3.1759649736640999e-02  2.6033217795660899e-02  2.2779719802811675e-02  2.1719856556233510e-02  1.2411147510924209e-01  1.1592091539986103e-01  9.9174875077585586e-02  8.0580675517564662e-02  6.3634613468687928e-02  4.9645739716266658e-02  3.8819133816806302e-02  3.0912232672083730e-02  2.5569156164126163e-02  2.2476284627586267e-02  2.1438525219288847e-02  1.1264197646868059e-01  1.0599506361105709e-01  9.2552689673209884e-02  7.6669699692276910e-02  6.1471075993622275e-02  4.8491506666041316e-02  3.8213976029467349e-02  3.0593180148755793e-02  2.5387943557054996e-02  2.2332901948292821e-02  2.1191058683522199e-02  1.0166390175043874e-01  9.7588714964574885e-02  8.6096864444772436e-02  7.1805100807140393e-02  5.7845406207245570e-02  4.5793457942756063e-02  3.6194907330860601e-02  2.9066085402609812e-02  2.4222394399712466e-02  2.1465742971330092e-02  2.0705275216842706e-02  1.1309172033774714e-01  1.0656897024124490e-01  9.2069154461127692e-02  7.5374762692661218e-02  5.9845342648296114e-02  4.6871046660033902e-02  3.6762163961670473e-02  2.9360426373389526e-02  2.4371010764807074e-02  2.1521595550025554e-02  2.0622120422615662e-02  1.5022084981623174e-01  1.3536128352019558e-01  1.1022217910157464e-01  8.5732552946162111e-02  6.5453827014477189e-02  4.9822681520254403e-02  3.8292222395767003e-02  3.0149025382045128e-02  2.4779966073576565e-02  2.1741449568362617e-02  2.0763928634962740e-02  2.3468950793626875e-01  1.9042568833400816e-01  1.4033691681682331e-01  1.0126955834859359e-01  7.3312964215896212e-02  5.3777565243877945e-02  4.0284176410270239e-02  3.1158460125710635e-02  2.5303005974587598e-02  2.2037516297997484e-02  2.0989573602964998e-02  4.3292694969920803e-01  2.7492088773757734e-01  1.7656856638121432e-01  1.1735613894571996e-01  8.0725112419951631e-02  5.7298866057593510e-02  4.1996128337355297e-02  3.2007377453562406e-02  2.5737826018824607e-02  2.2284641067151445e-02  2.1181857170564443e-02  6.2630133868474425e-01  3.3327173129309967e-01  1.9659804114821469e-01  1.2508461526895651e-01  8.3996700970807830e-02  5.8777805438907871e-02  4.2693917763781841e-02  3.2345597306371883e-02  2.5906251194620592e-02  2.2376456162474443e-02  2.1251409521333430e-02  4.9809057213318764e-01  2.8852081831664689e-01  1.7982785176630156e-01  1.1828494419213335e-01  8.1044363081264864e-02  5.7426608518320807e-02  4.2049642554726326e-02  3.2025080790442632e-02  2.5734724479315890e-02  2.2268930021836622e-02  2.1161409494830415e-02  2.4996468322223869e-01  1.9705536647333932e-01  1.4287774679431312e-01  1.0228295494308236e-01  7.3751485721075594e-02  5.3979107085080330e-02  4.0374001954160660e-02  3.1186369350754150e-02  2.5290700294625480e-02  2.1997891527592347e-02  2.0938110634081790e-02  1.5513426953367557e-01  1.3854837100496428e-01  1.1193173659030785e-01  8.6614008540447748e-02  6.5909513104185441e-02  5.0055832853872800e-02  3.8400283204985251e-02  3.0177336758087245e-02  2.4748426400504106e-02  2.1660693440647423e-02  2.0654369720184709e-02  1.1610070849058894e-01  1.0877078663100564e-01  9.3439090341110573e-02  7.6176074059407822e-02  6.029909735448331