<?xml version="1.0"?>
<VTKFile type="UnstructuredGrid"  version="0.1"  >
<UnstructuredGrid>
<Piece  NumberOfPoints="1331" NumberOfCells="6000">
<Points>
<DataArray  type="Float64"  NumberOfComponents="3"  format="ascii">0 0 0  1 0 0  2 0 0  3 0 0  4 0 0  5 0 0  6 0 0  7 0 0  8 0 0  9 0 0  10 0 0  0 1 0  1 1 0  2 1 0  3 1 0  4 1 0  5 1 0  6 1 0  7 1 0  8 1 0  9 1 0  10 1 0  0 2 0  1 2 0  2 2 0  3 2 0  4 2 0  5 2 0  6 2 0  7 2 0  8 2 0  9 2 0  10 2 0  0 3 0  1 3 0  2 3 0  3 3 0  4 3 0  5 3 0  6 3 0  7 3 0  8 3 0  9 3 0  10 3 0  0 4 0  1 4 0  2 4 0  3 4 0  4 4 0  5 4 0  6 4 0  7 4 0  8 4 0  9 4 0  10 4 0  0 5 0  1 5 0  2 5 0  3 5 0  4 5 0  5 5 0  6 5 0  7 5 0  8 5 0  9 5 0  10 5 0  0 6 0  1 6 0  2 6 0  3 6 0  4 6 0  5 6 0  6 6 0  7 6 0  8 6 0  9 6 0  10 6 0  0 7 0  1 7 0  2 7 0  3 7 0  4 7 0  5 7 0  6 7 0  7 7 0  8 7 0  9 7 0  10 7 0  0 8 0  1 8 0  2 8 0  3 8 0  4 8 0  5 8 0  6 8 0  7 8 0  8 8 0  9 8 0  10 8 0  0 9 0  1 9 0  2 9 0  3 9 0  4 9 0  5 9 0  6 9 0  7 9 0  8 9 0  9 9 0  10 9 0  0 10 0  1 10 0  2 10 0  3 10 0  4 10 0  5 10 0  6 10 0  7 10 0  8 10 0  9 10 0  10 10 0  0 0 1  1 0 1  2 0 1  3 0 1  4 0 1  5 0 1  6 0 1  7 0 1  8 0 1  9 0 1  10 0 1  0 1 1  1 1 1  2 1 1  3 1 1  4 1 1  5 1 1  6 1 1  7 1 1  8 1 1  9 1 1  10 1 1  0 2 1  1 2 1  2 2 1  3 2 1  4 2 1  5 2 1  6 2 1  7 2 1  8 2 1  9 2 1  10 2 1  0 3 1  1 3 1  2 3 1  3 3 1  4 3 1  5 3 1  6 3 1  7 3 1  8 3 1  9 3 1  10 3 1  0 4 1  1 4 1  2 4 1  3 4 1  4 4 1  5 4 1  6 4 1  7 4 1  8 4 1  9 4 1  10 4 1  0 5 1  1 5 1  2 5 1  3 5 1  4 5 1  5 5 1  6 5 1  7 5 1  8 5 1  9 5 1  10 5 1  0 6 1  1 6 1  2 6 1  3 6 1  4 6 1  5 6 1  6 6 1  7 6 1  8 6 1  9 6 1  10 6 1  0 7 1  1 7 1  2 7 1  3 7 1  4 7 1  5 7 1  6 7 1  7 7 1  8 7 1  9 7 1  10 7 1  0 8 1  1 8 1  2 8 1  3 8 1  4 8 1  5 8 1  6 8 1  7 8 1  8 8 1  9 8 1  10 8 1  0 9 1  1 9 1  2 9 1  3 9 1  4 9 1  5 9 1  6 9 1  7 9 1  8 9 1  9 9 1  10 9 1  0 10 1  1 10 1  2 10 1  3 10 1  4 10 1  5 10 1  6 10 1  7 10 1  8 10 1  9 10 1  10 10 1  0 0 2  1 0 2  2 0 2  3 0 2  4 0 2  5 0 2  6 0 2  7 0 2  8 0 2  9 0 2  10 0 2  0 1 2  1 1 2  2 1 2  3 1 2  4 1 2  5 1 2  6 1 2  7 1 2  8 1 2  9 1 2  10 1 2  0 2 2  1 2 2  2 2 2  3 2 2  4 2 2  5 2 2  6 2 2  7 2 2  8 2 2  9 2 2  10 2 2  0 3 2  1 3 2  2 3 2  3 3 2  4 3 2  5 3 2  6 3 2  7 3 2  8 3 2  9 3 2  10 3 2  0 4 2  1 4 2  2 4 2  3 4 2  4 4 2  5 4 2  6 4 2  7 4 2  8 4 2  9 4 2  10 4 2  0 5 2  1 5 2  2 5 2  3 5 2  4 5 2  5 5 2  6 5 2  7 5 2  8 5 2  9 5 2  10 5 2  0 6 2  1 6 2  2 6 2  3 6 2  4 6 2  5 6 2  6 6 2  7 6 2  8 6 2  9 6 2  10 6 2  0 7 2  1 7 2  2 7 2  3 7 2  4 7 2  5 7 2  6 7 2  7 7 2  8 7 2  9 7 2  10 7 2  0 8 2  1 8 2  2 8 2  3 8 2  4 8 2  5 8 2  6 8 2  7 8 2  8 8 2  9 8 2  10 8 2  0 9 2  1 9 2  2 9 2  3 9 2  4 9 2  5 9 2  6 9 2  7 9 2  8 9 2  9 9 2  10 9 2  0 10 2  1 10 2  2 10 2  3 10 2  4 10 2  5 10 2  6 10 2  7 10 2  8 10 2  9 10 2  10 10 2  0 0 3  1 0 3  2 0 3  3 0 3  4 0 3  5 0 3  6 0 3  7 0 3  8 0 3  9 0 3  10 0 3  0 1 3  1 1 3  2 1 3  3 1 3  4 1 3  5 1 3  6 1 3  7 1 3  8 1 3  9 1 3  10 1 3  0 2 3  1 2 3  2 2 3  3 2 3  4 2 3  5 2 3  6 2 3  7 2 3  8 2 3  9 2 3  10 2 3  0 3 3  1 3 3  2 3 3  3 3 3  4 3 3  5 3 3  6 3 3  7 3 3  8 3 3  9 3 3  10 3 3  0 4 3  1 4 3  2 4 3  3 4 3  4 4 3  5 4 3  6 4 3  7 4 3  8 4 3  9 4 3  10 4 3  0 5 3  1 5 3  2 5 3  3 5 3  4 5 3  5 5 3  6 5 3  7 5 3  8 5 3  9 5 3  10 5 3  0 6 3  1 6 3  2 6 3  3 6 3  4 6 3  5 6 3  6 6 3  7 6 3  8 6 3  9 6 3  10 6 3  0 7 3  1 7 3  2 7 3  3 7 3  4 7 3  5 7 3  6 7 3  7 7 3  8 7 3  9 7 3  10 7 3  0 8 3  1 8 3  2 8 3  3 8 3  4 8 3  5 8 3  6 8 3  7 8 3  8 8 3  9 8 3  10 8 3  0 9 3  1 9 3  2 9 3  3 9 3  4 9 3  5 9 3  6 9 3  7 9 3  8 9 3  9 9 3  10 9 3  0 10 3  1 10 3  2 10 3  3 10 3  4 10 3  5 10 3  6 10 3  7 10 3  8 10 3  9 10 3  10 10 3  0 0 4  1 0 4  2 0 4  3 0 4  4 0 4  5 0 4  6 0 4  7 0 4  8 0 4  9 0 4  10 0 4  0 1 4  1 1 4  2 1 4  3 1 4  4 1 4  5 1 4  6 1 4  7 1 4  8 1 4  9 1 4  10 1 4  0 2 4  1 2 4  2 2 4  3 2 4  4 2 4  5 2 4  6 2 4  7 2 4  8 2 4  9 2 4  10 2 4  0 3 4  1 3 4  2 3 4  3 3 4  4 3 4  5 3 4  6 3 4  7 3 4  8 3 4  9 3 4  10 3 4  0 4 4  1 4 4  2 4 4  3 4 4  4 4 4  5 4 4  6 4 4  7 4 4  8 4 4  9 4 4  10 4 4  0 5 4  1 5 4  2 5 4  3 5 4  4 5 4  5 5 4  6 5 4  7 5 4  8 5 4  9 5 4  10 5 4  0 6 4  1 6 4  2 6 4  3 6 4  4 6 4  5 6 4  6 6 4  7 6 4  8 6 4  9 6 4  10 6 4  0 7 4  1 7 4  2 7 4  3 7 4  4 7 4  5 7 4  6 7 4  7 7 4  8 7 4  9 7 4  10 7 4  0 8 4  1 8 4  2 8 4  3 8 4  4 8 4  5 8 4  6 8 4  7 8 4  8 8 4  9 8 4  10 8 4  0 9 4  1 9 4  2 9 4  3 9 4  4 9 4  5 9 4  6 9 4  7 9 4  8 9 4  9 9 4  10 9 4  0 10 4  1 10 4  2 10 4  3 10 4  4 10 4  5 10 4  6 10 4  7 10 4  8 10 4  9 10 4  10 10 4  0 0 5  1 0 5  2 0 5  3 0 5  4 0 5  5 0 5  6 0 5  7 0 5  8 0 5  9 0 5  10 0 5  0 1 5  1 1 5  2 1 5  3 1 5  4 1 5  5 1 5  6 1 5  7 1 5  8 1 5  9 1 5  10 1 5  0 2 5  1 2 5  2 2 5  3 2 5  4 2 5  5 2 5  6 2 5  7 2 5  8 2 5  9 2 5  10 2 5  0 3 5  1 3 5  2 3 5  3 3 5  4 3 5  5 3 5  6 3 5  7 3 5  8 3 5  9 3 5  10 3 5  0 4 5  1 4 5  2 4 5  3 4 5  4 4 5  5 4 5  6 4 5  7 4 5  8 4 5  9 4 5  10 4 5  0 5 5  1 5 5  2 5 5  3 5 5  4 5 5  5 5 5  6 5 5  7 5 5  8 5 5  9 5 5  10 5 5  0 6 5  1 6 5  2 6 5  3 6 5  4 6 5  5 6 5  6 6 5  7 6 5  8 6 5  9 6 5  10 6 5  0 7 5  1 7 5  2 7 5  3 7 5  4 7 5  5 7 5  6 7 5  7 7 5  8 7 5  9 7 5  10 7 5  0 8 5  1 8 5  2 8 5  3 8 5  4 8 5  5 8 5  6 8 5  7 8 5  8 8 5  9 8 5  10 8 5  0 9 5  1 9 5  2 9 5  3 9 5  4 9 5  5 9 5  6 9 5  7 9 5  8 9 5  9 9 5  10 9 5  0 10 5  1 10 5  2 10 5  3 10 5  4 10 5  5 10 5  6 10 5  7 10 5  8 10 5  9 10 5  10 10 5  0 0 6  1 0 6  2 0 6  3 0 6  4 0 6  5 0 6  6 0 6  7 0 6  8 0 6  9 0 6  10 0 6  0 1 6  1 1 6  2 1 6  3 1 6  4 1 6  5 1 6  6 1 6  7 1 6  8 1 6  9 1 6  10 1 6  0 2 6  1 2 6  2 2 6  3 2 6  4 2 6  5 2 6  6 2 6  7 2 6  8 2 6  9 2 6  10 2 6  0 3 6  1 3 6  2 3 6  3 3 6  4 3 6  5 3 6  6 3 6  7 3 6  8 3 6  9 3 6  10 3 6  0 4 6  1 4 6  2 4 6  3 4 6  4 4 6  5 4 6  6 4 6  7 4 6  8 4 6  9 4 6  10 4 6  0 5 6  1 5 6  2 5 6  3 5 6  4 5 6  5 5 6  6 5 6  7 5 6  8 5 6  9 5 6  10 5 6  0 6 6  1 6 6  2 6 6  3 6 6  4 6 6  5 6 6  6 6 6  7 6 6  8 6 6  9 6 6  10 6 6  0 7 6  1 7 6  2 7 6  3 7 6  4 7 6  5 7 6  6 7 6  7 7 6  8 7 6  9 7 6  10 7 6  0 8 6  1 8 6  2 8 6  3 8 6  4 8 6  5 8 6  6 8 6  7 8 6  8 8 6  9 8 6  10 8 6  0 9 6  1 9 6  2 9 6  3 9 6  4 9 6  5 9 6  6 9 6  7 9 6  8 9 6  9 9 6  10 9 6  0 10 6  1 10 6  2 10 6  3 10 6  4 10 6  5 10 6  6 10 6  7 10 6  8 10 6  9 10 6  10 10 6  0 0 7  1 0 7  2 0 7  3 0 7  4 0 7  5 0 7  6 0 7  7 0 7  8 0 7  9 0 7  10 0 7  0 1 7  1 1 7  2 1 7  3 1 7  4 1 7  5 1 7  6 1 7  7 1 7  8 1 7  9 1 7  10 1 7  0 2 7  1 2 7  2 2 7  3 2 7  4 2 7  5 2 7  6 2 7  7 2 7  8 2 7  9 2 7  10 2 7  0 3 7  1 3 7  2 3 7  3 3 7  4 3 7  5 3 7  6 3 7  7 3 7  8 3 7  9 3 7  10 3 7  0 4 7  1 4 7  2 4 7  3 4 7  4 4 7  5 4 7  6 4 7  7 4 7  8 4 7  9 4 7  10 4 7  0 5 7  1 5 7  2 5 7  3 5 7  4 5 7  5 5 7  6 5 7  7 5 7  8 5 7  9 5 7  10 5 7  0 6 7  1 6 7  2 6 7  3 6 7  4 6 7  5 6 7  6 6 7  7 6 7  8 6 7  9 6 7  10 6 7  0 7 7  1 7 7  2 7 7  3 7 7  4 7 7  5 7 7  6 7 7  7 7 7  8 7 7  9 7 7  10 7 7  0 8 7  1 8 7  2 8 7  3 8 7  4 8 7  5 8 7  6 8 7  7 8 7  8 8 7  9 8 7  10 8 7  0 9 7  1 9 7  2 9 7  3 9 7  4 9 7  5 9 7  6 9 7  7 9 7  8 9 7  9 9 7  10 9 7  0 10 7  1 10 7  2 10 7  3 10 7  4 10 7  5 10 7  6 10 7  7 10 7  8 10 7  9 10 7  10 10 7  0 0 8  1 0 8  2 0 8  3 0 8  4 0 8  5 0 8  6 0 8  7 0 8  8 0 8  9 0 8  10 0 8  0 1 8  1 1 8  2 1 8  3 1 8  4 1 8  5 1 8  6 1 8  7 1 8  8 1 8  9 1 8  10 1 8  0 2 8  1 2 8  2 2 8  3 2 8  4 2 8  5 2 8  6 2 8  7 2 8  8 2 8  9 2 8  10 2 8  0 3 8  1 3 8  2 3 8  3 3 8  4 3 8  5 3 8  6 3 8  7 3 8  8 3 8  9 3 8  10 3 8  0 4 8  1 4 8  2 4 8  3 4 8  4 4 8  5 4 8  6 4 8  7 4 8  8 4 8  9 4 8  10 4 8  0 5 8  1 5 8  2 5 8  3 5 8  4 5 8  5 5 8  6 5 8  7 5 8  8 5 8  9 5 8  10 5 8  0 6 8  1 6 8  2 6 8  3 6 8  4 6 8  5 6 8  6 6 8  7 6 8  8 6 8  9 6 8  10 6 8  0 7 8  1 7 8  2 7 8  3 7 8  4 7 8  5 7 8  6 7 8  7 7 8  8 7 8  9 7 8  10 7 8  0 8 8  1 8 8  2 8 8  3 8 8  4 8 8  5 8 8  6 8 8  7 8 8  8 8 8  9 8 8  10 8 8  0 9 8  1 9 8  2 9 8  3 9 8  4 9 8  5 9 8  6 9 8  7 9 8  8 9 8  9 9 8  10 9 8  0 10 8  1 10 8  2 10 8  3 10 8  4 10 8  5 10 8  6 10 8  7 10 8  8 10 8  9 10 8  10 10 8  0 0 9  1 0 9  2 0 9  3 0 9  4 0 9  5 0 9  6 0 9  7 0 9  8 0 9  9 0 9  10 0 9  0 1 9  1 1 9  2 1 9  3 1 9  4 1 9  5 1 9  6 1 9  7 1 9  8 1 9  9 1 9  10 1 9  0 2 9  1 2 9  2 2 9  3 2 9  4 2 9  5 2 9  6 2 9  7 2 9  8 2 9  9 2 9  10 2 9  0 3 9  1 3 9  2 3 9  3 3 9  4 3 9  5 3 9  6 3 9  7 3 9  8 3 9  9 3 9  10 3 9  0 4 9  1 4 9  2 4 9  3 4 9  4 4 9  5 4 9  6 4 9  7 4 9  8 4 9  9 4 9  10 4 9  0 5 9  1 5 9  2 5 9  3 5 9  4 5 9  5 5 9  6 5 9  7 5 9  8 5 9  9 5 9  10 5 9  0 6 9  1 6 9  2 6 9  3 6 9  4 6 9  5 6 9  6 6 9  7 6 9  8 6 9  9 6 9  10 6 9  0 7 9  1 7 9  2 7 9  3 7 9  4 7 9  5 7 9  6 7 9  7 7 9  8 7 9  9 7 9  10 7 9  0 8 9  1 8 9  2 8 9  3 8 9  4 8 9  5 8 9  6 8 9  7 8 9  8 8 9  9 8 9  10 8 9  0 9 9  1 9 9  2 9 9  3 9 9  4 9 9  5 9 9  6 9 9  7 9 9  8 9 9  9 9 9  10 9 9  0 10 9  1 10 9  2 10 9  3 10 9  4 10 9  5 10 9  6 10 9  7 10 9  8 10 9  9 10 9  10 10 9  0 0 10  1 0 10  2 0 10  3 0 10  4 0 10  5 0 10  6 0 10  7 0 10  8 0 10  9 0 10  10 0 10  0 1 10  1 1 10  2 1 10  3 1 10  4 1 10  5 1 10  6 1 10  7 1 10  8 1 10  9 1 10  10 1 10  0 2 10  1 2 10  2 2 10  3 2 10  4 2 10  5 2 10  6 2 10  7 2 10  8 2 10  9 2 10  10 2 10  0 3 10  1 3 10  2 3 10  3 3 10  4 3 10  5 3 10  6 3 10  7 3 10  8 3 10  9 3 10  10 3 10  0 4 10  1 4 10  2 4 10  3 4 10  4 4 10  5 4 10  6 4 10  7 4 10  8 4 10  9 4 10  10 4 10  0 5 10  1 5 10  2 5 10  3 5 10  4 5 10  5 5 10  6 5 10  7 5 10  8 5 10  9 5 10  10 5 10  0 6 10  1 6 10  2 6 10  3 6 10  4 6 10  5 6 10  6 6 10  7 6 10  8 6 10  9 6 10  10 6 10  0 7 10  1 7 10  2 7 10  3 7 10  4 7 10  5 7 10  6 7 10  7 7 10  8 7 10  9 7 10  10 7 10  0 8 10  1 8 10  2 8 10  3 8 10  4 8 10  5 8 10  6 8 10  7 8 10  8 8 10  9 8 10  10 8 10  0 9 10  1 9 10  2 9 10  3 9 10  4 9 10  5 9 10  6 9 10  7 9 10  8 9 10  9 9 10  10 9 10  0 10 10  1 10 10  2 10 10  3 10 10  4 10 10  5 10 10  6 10 10  7 10 10  8 10 10  9 10 10  10 10 10  </DataArray>
</Points>
<Cells>
[...]
<PointData  Scalars="f_117"> 
<DataArray  type="Float64"  Name="f_117"  format="ascii">0.0000000000000000e+00  0.0000000000000000e+00  0.0000000000000000e+00  0.0000000000000000e+00  0.0000000000000000e+00  0.0000000000000000e+00  0.0000000000000000e+00  0.0000000000000000e+00  0.0000000000000000e+00  0.0000000000000000e+00  0.0000000000000000e+00  0.0000000000000000e+00  0.0000000000000000e+00  0.0000000000000000e+00  0.0000000000000000e+00  0.0000000000000000e+00  0.0000000000000000e+00  0.0000000000000000e+00  0.0000000000000000e+00  0.0000000000000000e+00  0.0000000000000000e+00  0.0000000000000000e+00  0.0000000000000000e+00  0.0000000000000000e+00  0.0000000000000000e+00  0.0000000000000000e+00  0.0000000000000000e+00  0.0000000000000000e+00  0.0000000000000000e+00  0.0000000000000000e+00  0.0000000000000000e+00  0.0000000000000000e+00  0.0000000000000000e+00  0.0000000000000000e+00  0.0000000000000000e+00  0.0000000000000000e+00  0.0000000000000000e+00  0.0000000000000000e+00  0.0000000000000000e+00  0.0000000000000000e+00  0.0000000000000000e+00  0.0000000000000000e+00  0.0000000000000000e+00  0.0000000000000000e+00  0.0000000000000000e+00  0.0000000000000000e+00  0.0000000000000000e+00  0.0000000000000000e+00  0.0000000000000000e+00  0.0000000000000000e+00  0.0000000000000000e+00  0.0000000000000000e+00  0.0000000000000000e+00  0.0000000000000000e+00  0.0000000000000000e+00  0.0000000000000000e+00  0.0000000000000000e+00  0.0000000000000000e+00  0.0000000000000000e+00  0.0000000000000000e+00  0.0000000000000000e+00  0.0000000000000000e+00  0.0000000000000000e+00  0.0000000000000000e+00  0.0000000000000000e+00  0.0000000000000000e+00  0.0000000000000000e+00  0.0000000000000000e+00  0.0000000000000000e+00  0.0000000000000000e+00  0.0000000000000000e+00  0.0000000000000000e+00  0.0000000000000000e+00  0.0000000000000000e+00  0.0000000000000000e+00  0.0000000000000000e+00  0.0000000000000000e+00  0.0000000000000000e+00  0.0000000000000000e+00  0.0000000000000000e+00  0.0000000000000000e+00  0.0000000000000000e+00  0.0000000000000000e+00  0.0000000000000000e+00  0.0000000000000000e+00  0.0000000000000000e+00  0.0000000000000000e+00  0.0000000000000000e+00  0.0000000000000000e+00  0.0000000000000000e+00  0.0000000000000000e+00  0.0000000000000000e+00  0.0000000000000000e+00  0.0000000000000000e+00  0.0000000000000000e+00  0.0000000000000000e+00  0.0000000000000000e+00  0.0000000000000000e+00  0.0000000000000000e+00  0.0000000000000000e+00  0.0000000000000000e+00  0.0000000000000000e+00  0.0000000000000000e+00  0.0000000000000000e+00  0.0000000000000000e+00  0.0000000000000000e+00  0.0000000000000000e+00  0.0000000000000000e+00  0.0000000000000000e+00  0.0000000000000000e+00  0.0000000000000000e+00  0.0000000000000000e+00  0.0000000000000000e+00  0.0000000000000000e+00  0.0000000000000000e+00  0.0000000000000000e+00  0.0000000000000000e+00  0.0000000000000000e+00  0.0000000000000000e+00  0.0000000000000000e+00  0.0000000000000000e+00  3.0357061881624205e-02  2.9302096985707776e-02  2.6293622950959394e-02  2.2323587922459680e-02  1.8250471967914510e-02  1.4605463126718421e-02  1.1630065249415945e-02  9.3843779084297283e-03  7.8432454198832276e-03  6.9611827045722319e-03  6.7171766379196347e-03  3.2349135132373932e-02  3.1001131646676772e-02  2.7550200893190279e-02  2.3152527166770673e-02  1.8754524607093877e-02  1.4895134973153165e-02  1.1790231858703830e-02  9.4705646059299146e-03  7.8878330555295657e-03  6.9778361764135212e-03  6.6897287728894198e-03  3.7845404127438143e-02  3.5825366371310716e-02  3.1079759125760109e-02  2.5441921995123840e-02  2.0125766282953362e-02  1.5673973346957137e-02  1.2217359287845512e-02  9.6999149873873685e-03  8.0102757321446876e-03  7.0448257218428904e-03  6.7329385805504063e-03  4.6082726070335811e-02  4.2871391970978882e-02  3.6038792644988729e-02  2.8546443499105349e-02  2.1933702446291097e-02  1.6679712418820700e-02  1.2760933217590651e-02  9.9893212914108562e-03  8.1655105472621115e-03  7.1347506536804783e-03  6.8020707805439180e-03  5.4490643588862582e-02  4.9751485745332155e-02  4.0636326726472188e-02  3.1304982273262123e-02  2.3490494333209593e-02  1.7526771399077462e-02  1.3211798063998284e-02  1.0226892705928093e-02  8.2923077729613742e-03  7.2088051073783020e-03  6.8603196562327237e-03  5.7791321440182335e-02  5.2419566451239040e-02  4.2395049991023032e-02  3.2349502742604869e-02  2.4076210396098623e-02  1.7844242548735276e-02  1.3380134792682971e-02  1.0314820942592930e-02  8.3381945161644586e-03  7.2344951222148412e-03  6.8799522390749403e-03  5.3391532462327779e-02  4.8961040985237077e-02  4.0199156722972224e-02  3.1091839337538608e-02  2.3393007614908024e-02  1.7483054335528291e-02  1.3191129218844610e-02  1.0214912912765835e-02  8.2825573077629170e-03  7.1987688832995441e-03  6.8498010353654059e-03  4.4990196482157185e-02  4.2011286776684656e-02  3.5513308652500845e-02  2.8267436373516350e-02  2.1796793373629837e-02  1.6614353675315545e-02  1.2727718086414342e-02  9.9679697870608073e-03  8.1460207715475796e-03  7.1129398246292490e-03  6.7782680004846232e-03  3.7141844184193841e-02  3.5228618635159581e-02  3.0677175336296280e-02  2.5207010473900698e-02  2.0000245255401533e-02  1.5608778122362506e-02  1.2180416900036991e-02  9.6721484201913836e-03  7.9804814141015666e-03  7.0070294587013552e-03  6.6881255305453694e-03  3.2034033590737275e-02  3.0681252234594732e-02  2.7297600661938513e-02  2.2985731281037449e-02  1.8655845098436416e-02  1.4838602758340506e-02  1.1753939943680248e-02  9.4383735971062064e-03  7.8470811419027731e-03  6.9170938102413974e-03  6.6036683523726771e-03  3.0385960490623174e-02  2.9131976759859495e-02  2.6111090731863306e-02  2.2188127963704514e-02  1.8164643546103407e-02  1.4553473865356398e-02  1.1594444280421312e-02  9.3499898613044457e-03  7.7948222906182316e-03  6.8743805062396147e-03  6.5289583393127199e-03  5.9308461230998470e-02  5.7159633788309537e-02  5.1035651011208313e-02  4.3092378282342844e-02  3.5064731544121139e-02  2.7961971596673737e-02  2.2210086743939875e-02  1.7891827569419365e-02  1.4938245795238277e-02  1.3251001816803488e-02  1.2784678670972128e-02  6.3890081491827705e-02  6.0979990497477918e-02  5.3774164468974615e-02  4.4844927582756267e-02  3.6103247251771539e-02  2.8546616899445702e-02  2.2528267035878430e-02  1.8061029825528988e-02  1.5025076398806032e-02  1.3283446803647013e-02  1.2732585066039427e-02  7.6989830819297625e-02  7.2154511357010398e-02  6.1622272849947098e-02  4.9747035896153535e-02  3.8950475302254046e-02  3.0125867118970133e-02  2.3379102316434079e-02  1.8511969006993225e-02  1.5263570080846193e-02  1.3413153188268237e-02  1.2816180486183324e-02  9.8417524763756273e-02  8.9529980993905980e-02  7.3098834547615690e-02  5.6559261634966315e-02  4.2759798143657560e-02  3.2182894103007807e-02  2.4467408243468537e-02  1.9082676290296918e-02  1.5566407833375260e-02  1.3587291765055652e-02  1.2949665139119380e-02  1.2356684253199293e-01  1.0809098573444022e-01  8.4327649704227042e-02  6.2807126338180710e-02  4.6101299484528242e-02  3.3934381029700963e-02  2.5376056268710458e-02  1.9553108164605121e-02  1.5814443761035288e-02  1.3730957439180383e-02  1.3062284703020878e-02  1.3402661968742538e-01  1.1561850054565959e-01  8.8765747302849862e-02  6.5228934457706847e-02  4.7380015137133968e-02  3.4599284369024243e-02  2.5718817981926708e-02  1.9728790728016202e-02  1.5904985951454686e-02  1.3781249987371812e-02  1.3100602498421828e-02  1.1964559488115301e-01  1.0574470349819874e-01  8.3233701371533728e-02  6.2341932571230184e-02  4.5910148246652752e-02  3.3855592955366297e-02  2.5340955185676212e-02  1.9533000220333750e-02  1.5797446762800069e-02  1.3712820009824853e-02  1.3043048206033782e-02  9.5385228693052215e-02  8.7374555905053219e-02  7.1924796705535504e-02  5.5995666403527940e-02  4.2505717322637540e-02  3.2069778133958275e-02  2.4412438937228092e-02  1.9047018531445727e-02  1.5532176295730928e-02  1.3547551833742379e-02  1.2905801787738458e-02  7.5369597761949403e-02  7.0860153279187904e-02  6.0816513594278046e-02  4.9311474597152571e-02  3.8733044464079706e-02  3.0019050145080439e-02  2.3319916827573433e-02  1.8465648822842691e-02  1.5210608692266309e-02  1.3343536172690561e-02  1.2732757913012186e-02  6.3313892400417182e-02  6.0395283759873505e-02  5.3330354387839340e-02  4.4565803488244564e-02  3.5945847749735582e-02  2.8459579520207442e-02  2.2471802126176464e-02  1.8007082215558388e-02  1.4951715739349227e-02  1.3170403402231957e-02  1.2570738623895183e-02  5.9589652873194843e-02  5.6932304867481007e-02  5.0751238343738771e-02  4.2881570942185449e-02  3.4934569250686678e-02  2.7884549848932651e-02  2.2155322068506535e-02  1.7833925402574707e-02  1.4850401092359763e-02  1.3088314787023941e-02  1.2427718408645162e-02  8.4610671353162289e-02  8.1351612506986748e-02  7.2119942107688906e-02  6.0440444050755417e-02  4.8877072914252619e-02  3.8798314366371552e-02  3.0720121976373350e-02  2.4696195317850302e-02  2.0593247167711513e-02  1.8255010122744254e-02  1.7609492081328643e-02  9.2733080773340276e-02  8.7900420232068413e-02  7.6611943979267821e-02  6.3200212430524413e-02  5.0458207574958100e-02  3.9665213420227136e-02  3.1182534571218098e-02  2.4938474336146880e-02  2.0716332832046155e-02  1.8301028175551366e-02  1.7538028858897655e-02  1.1747695181874289e-01  1.0797962661012318e-01  8.9879331704168078e-02  7.1063356011873580e-02  5.4841137120018243e-02  4.2022140745722018e-02  3.2423743205448621e-02  2.5585520541465800e-02  2.1054538325489671e-02  1.8483604272034351e-02  1.7655587754854252e-02  1.6480578717309921e-01  1.4254663758963418e-01  1.1051504945765861e-01  8.2396331385085092e-02  6.0831155890897805e-02  4.5130197663428961e-02  3.4022787264771412e-02  2.6407843201928443e-02  2.1484954555755394e-02  1.8728816336710120e-02  1.7842871334856902e-02  2.3828429568303272e-01  1.8575145488552330e-01  1.3256687757580338e-01  9.3320630474393720e-02  6.6235981925286472e-02  4.7819980553857611e-02  3.5370824128563211e-02  2.7089789233643750e-02  2.1838895404634868e-02  1.8931669311220381e-02  1.8001206045990564e-02  2.7191895817990458e-01  2.0466338059980432e-01  1.4179064774694880e-01  9.7729282654241412e-02  6.8364213868793197e-02  4.8862656561282213e-02  3.5887686547450171e-02  2.7348011107183951e-02  2.1969789953340289e-02  1.9003638903134251e-02  1.8055829867657750e-02  2.2358078144771512e-01  1.7963482730055580e-01  1.3042587142841583e-01  9.2591305610421198e-02  6.5984623878640528e-02  4.7730337461358130e-02  3.5334751800357778e-02  2.7068877201298469e-02  2.1819140791693253e-02  1.8908854385701529e-02  1.7976443895027297e-02  1.5755687122294706e-01  1.3832116647766068e-01  1.0861503430631930e-01  8.1622640851095579e-02  6.0528873313976661e-02  4.5011515768121721e-02  3.3969246858300557e-02  2.6370877125478101e-02  2.1444411182583500e-02  1.8678036911840216e-02  1.7785632939415361e-02  1.1465631473565734e-01  1.0597635001881377e-01  8.8795127259656617e-02  7.0550809158884481e-02  5.4615931714470572e-02  4.1923203802301287e-02  3.2370144034075954e-02  2.5537118250020894e-02  2.0990093708882905e-02  1.8392865736189225e-02  1.7544809190512958e-02  9.2099502656874513e-02  8.7253745389720708e-02  7.6155686478962537e-02  6.2939841971516947e-02  5.0326244676758711e-02  3.9597624492978989e-02  3.1134972181532730e-02  2.4881027605301035e-02  2.0624717891776157e-02  1.8151021280191408e-02  1.7319480264877181e-02  8.5592670691240991e-02  8.1330393708346063e-02  7.1921754745224123e-02  6.0283883118493586e-02  4.8784955667427320e-02  3.8744774868631530e-02  3.0675408626757571e-02  2.4633674962160717e-02  2.0481912595243235e-02  1.8036581910435175e-02  1.7121053587534366e-02  1.0261785561432249e-01  9.8418587328622797e-02  8.6668057118647168e-02  7.2152846139199325e-02  5.8042532374351433e-02  4.5900292870475319e-02  3.6251066287642200e-02  2.9095026521303868e-02  2.4237366106343899e-02  2.1474263319519151e-02  2.0712141034731273e-02  1.1461993951217207e-01  1.0774626702521461e-01  9.2797592932182552e-02  7.5782395383535414e-02  6.0062362312954753e-02  4.6983466363647274e-02  3.6819387453234112e-02  2.9389232928771932e-02  2.4385632588571463e-02  2.1529746163938736e-02  2.0628451900060907e-02  1.5437375892647362e-01  1.3791990695911469e-01  1.1148374131613831e-01  8.6316087535292185e-02  6.5721487194403877e-02  4.9946685946239168e-02  3.8350373793080220e-02  3.0176555172787962e-02  2.4793247670790126e-02  2.1748501851332480e-02  2.0769237305118919e-02  2.4956267559379486e-01  1.9669792641749520e-01  1.4260228394364521e-01  1.0208853484072047e-01  7.3623489107910486e-02  5.3902227422317178e-02  4.0336707145790629e-02  3.1181331325637371e-02  2.5313226232393987e-02  2.2042506781337960e-02  2.0993136395756968e-02  4.9791127644215283e-01  2.8835655213042527e-01  1.7969583318606877e-01  1.1818818296776501e-01  8.0978611279248297e-02  5.7385842014883795e-02  4.2028644902945854e-02  3.2020053394946894e-02  2.5742725612814078e-02  2.2286501737672080e-02  2.1182911747967059e-02  6.2629529106164428e-01  3.3326589494023351e-01  1.9659272692057783e-01  1.2507996376718453e-01  8.3992723056174806e-02  5.8774436567209841e-02  4.2691057705387163e-02  3.2343132979354997e-02  2.5904067561940712e-02  2.2374439913513698e-02  2.1249448960238310e-02  4.3309360980117501e-01  2.7507306035154000e-01  1.7668971223471630e-01  1.1744348227890374e-01  8.0782864770640922e-02  5.7332883804380196e-02  4.2011407548063172e-02  3.2007482162743926e-02  2.5725465264435664e-02  2.2263045802689316e-02  2.1156443585653828e-02  2.3507656950593581e-01  1.9076936011227480e-01  1.4060060311555145e-01  1.0145415631344362e-01  7.3432810348893929e-02  5.3847655038835394e-02  4.0315753484541583e-02  3.1158590729219483e-02  2.5276142261875613e-02  2.1988905393409221e-02  2.0930668939532947e-02  1.5095921673454538e-01  1.3597159297099937e-01  1.1065637000068143e-01  8.6019838559414696e-02  6.5633414870822609e-02  4.9924956659080061e-02  3.8336406284726676e-02  3.0144918203544667e-02  2.4730840500461301e-02  2.1649697153017206e-02  2.0645252553394496e-02  1.1452664733449018e-01  1.0756525571545376e-01  9.2693295119817845e-02  7.5756624907757780e-02  6.0073266464422764e-02  4.6996971908442112e-02  3.6813826203906372e-02  2.9348600130757321e-02  2.4292536421689079e-02  2.1362078475638736e-02  2.0378237626937759e-02  1.0486202356107137e-01  9.9028141166688746e-02  8.6853640342841029e-02  7.2235333413090713e-02  5.8094017413234722e-02  4.5928486082713660e-02  3.6248735498181188e-02  2.9048747937786695e-02  2.4121381822951423e-02  2.1226167932426668e-02  2.0143456266058131e-02  1.0892081645725776e-01  1.0438146468135112e-01  9.1721781272006808e-02  7.6201252524370933e-02  6.1200257696271763e-02  4.8342911467192190e-02  3.8152181451232434e-02  3.0607065558443027e-02  2.5490394452385916e-02  2.2581570325418014e-02  2.1779490537781380e-02  1.2250240770846686e-01  1.1482115518712710e-01  9.8493152770291914e-02  8.0165270951059256e-02  6.3386084986832375e-02  4.9506856178753139e-02  3.8759650775044910e-02  3.0920321500587291e-02  2.5647869829537994e-02  2.2640599148596993e-02  2.1691811873740127e-02  1.6874317271590247e-01  1.4923812145924301e-01  1.1938724482242685e-01  9.1757010465081459e-02  6.9539161144008405e-02  5.2700420158264483e-02  4.0399163834980809e-02  3.1759624776982305e-02  2.6081031854165243e-02  2.2872668914774786e-02  2.1841244077376424e-02  2.8688937818605265e-01  2.1919950228835708e-01  1.5513261844378931e-01  1.0940483410462455e-01  7.8218918019875669e-02  5.6990442655650411e-02  4.2534878165991684e-02  3.2833602805976365e-02  2.6634591448028985e-02  2.3184858134162149e-02  2.2078784423922967e-02  6.2994562538692889e-01  3.3681692691107784e-01  1.9986837557819562e-01  1.2796552425897426e-01  8.6445448603469352e-02  6.0811151363723878e-02  4.4367385028103466e-02  3.3734696315285383e-02  2.7093609345295911e-02  2.3444757059179290e-02  2.2280675610472336e-02  8.8831611206616556e-01  4.0861435857740769e-01  2.2303430964831522e-01  1.3653338472544399e-01  8.9976248083971949e-02  6.2381456261150874e-02  4.5101037687298708e-02  3.4088125943927315e-02  2.7268851648185530e-02  2.3539936515407537e-02  2.2352628733123815e-02  6.3012956275534071e-01  3.3698495772028575e-01  2.0000252931330878e-01  1.2806289097701593e-01  8.6510665256852276e-02  6.0850601440173797e-02  4.4386516330968379e-02  3.3737419254091711e-02  2.7082913005671120e-02  2.3424166273421941e-02  2.2256008113745770e-02  2.8731099905239760e-01  2.1957316825196108e-01  1.5541898572587282e-01  1.0960556272680246e-01  7.8349897785644371e-02  5.7068010167994773e-02  4.2571214448104230e-02  3.2836371137133016e-02  2.6608640501144500e-02  2.3135841291499936e-02  2.2018873771915488e-02  1.6955258288919017e-01  1.4990300524422637e-01  1.1985776297864832e-01  9.2067656104897963e-02  6.9733685478653606e-02  5.2812088049352238e-02  4.0448839123211358e-02  3.1757953326082312e-02  2.6031655253758303e-02  2.2778240259010173e-02  2.1718405257348881e-02  1.2410862962354219e-01  1.1591811231100556e-01  9.9172193273210293e-02  8.0578173918283702e-02  6.3632325009520541e-02  4.9643671547550769e-02  3.8817271219798208e-02  3.0910544412316155e-02  2.5567599708549528e-02  2.2474810439570270e-02  2.1437079726019263e-02  1.1263915229379311e-01  1.0599227795696661e-01  9.2550022492406875e-02  7.6667209788459256e-02  6.1468796387331090e-02  4.8489444899350261e-02  3.8212117934016632e-02  3.0591495081912116e-02  2.5386389628873747e-02  2.2331430643837812e-02  2.1189619403709621e-02  1.0166041808723941e-01  9.7585292655965439e-02  8.6093607767087549e-02  7.1802088136628750e-02  5.7842679838051192e-02  4.5791024427667346e-02  3.6192743844027354e-02  2.9064147924561370e-02  2.4220625065034557e-02  2.1464075345627661e-02  2.0703636670045308e-02  1.1308820719121473e-01  1.0656551747819501e-01  9.2065871456948847e-02  7.5371729576243357e-02  5.9842601637946871e-02  4.6868603321537493e-02  3.6759994231481651e-02  2.9358485134743557e-02  2.4369239432921044e-02  2.1519927784172284e-02  2.0620486430028059e-02  1.5021724855593499e-01  1.3535774678252996e-01  1.1021882448001699e-01  8.5729464233077562e-02  6.5451046039592481e-02  4.9820211189955013e-02  3.8290035340521299e-02  3.0147073493396088e-02  2.4778188484877280e-02  2.1739778423015506e-02  2.0762293031926945e-02  2.3468579084297567e-01  1.9042204231248455e-01  1.4033346992548662e-01  1.0126639859930597e-01  7.3310132503590739e-02  5.3775060803729575e-02  4.0281967525448409e-02  3.1156494803932427e-02  2.5301220316180349e-02  2.2035840177728860e-02  2.0987934191607816e-02  4.3292313180504632e-01  2.7491714750515195e-01  1.7656504102094825e-01  1.1735291957434661e-01  8.0722238615022174e-02  5.7296333619085309e-02  4.1993901733375187e-02  3.2005401373462340e-02  2.5736033988282180e-02  2.2282961012065561e-02  2.1180214639461455e-02  6.2629747603826336e-01  3.3326795017836724e-01  1.9659448277495772e-01  1.2508137161720176e-01  8.3993810600740307e-02  5.8775262424527040e-02  4.2691684854255160e-02  3.2343617779347474e-02  2.5904457516870476e-02  2.2374775465020924e-02  2.1249766683471581e-02  4.9808674017173471e-01  2.8851706707215630e-01  1.7982431957364736e-01  1.1828172156078348e-01  8.1041488483667198e-02  5.7424076819696121e-02  4.2047417608078612e-02  3.2023106944106546e-02  2.5732935092747298e-02  2.2267252911517960e-02  2.1159770044937694e-02  2.4996094265999633e-01  1.9705170165670849e-01  1.4287428796896429e-01  1.0227978945393980e-01  7.3748652734668921e-02  5.3976604245858623e-02  4.0371796444776384e-02  3.1184408564155816e-02  2.5288920056929041e-02  2.1996221550098213e-02  2.0936477737865385e-02  1.5513064143620317e-01  1.3854481206355357e-01  1.1192836752300103e-01  8.6610912967584885e-02  6.5906731051683848e-02  5.0053365319622796e-02  3.8398101411204505e-02  3.0175391826530399e-02  2.4746657227301950e-02  2.1659032158866394e-02  2.0652744974743686e-02  1.1609717060176877e-01  1.0876731205263417e-01  9.3435792819099348e-02  7.6173034425856406e-02  6.029635626088134